       N       E                     dE             d eps       ncg     rms          rms(c)
DAV:   1     0.421362612986E+03    0.42136E+03   -0.15007E+04 86976   0.632E+02
DAV:   2     0.425358521095E+02   -0.37883E+03   -0.34541E+03 80760   0.215E+02
DAV:   3     0.813942684055E+01   -0.34396E+02   -0.32455E+02 92000   0.667E+01
DAV:   4     0.746904110857E+01   -0.67039E+00   -0.66695E+00 98928   0.900E+00
DAV:   5     0.745562138927E+01   -0.13420E-01   -0.13395E-01115368   0.124E+00    0.402E+01
DAV:   6    -0.243914295097E+02   -0.31847E+02   -0.29223E+01106104   0.422E+01    0.154E+01
DAV:   7    -0.214796079166E+02    0.29118E+01   -0.52358E+00105440   0.230E+01    0.491E+00
DAV:   8    -0.215273814910E+02   -0.47774E-01   -0.15928E+00124584   0.104E+01    0.420E+00
DAV:   9    -0.213599780828E+02    0.16740E+00   -0.38667E-01127352   0.414E+00    0.873E-01
DAV:  10    -0.213584650746E+02    0.15130E-02   -0.11488E-02120416   0.475E-01    0.337E-01
DAV:  11    -0.213586723891E+02   -0.20731E-03   -0.10994E-03120648   0.285E-01    0.110E-01
DAV:  12    -0.213588120645E+02   -0.13968E-03   -0.15581E-04113144   0.994E-02    0.272E-02
DAV:  13    -0.213588116975E+02    0.36699E-06   -0.14036E-05124888   0.278E-02    0.162E-02
DAV:  14    -0.213588131190E+02   -0.14215E-05   -0.61060E-06108208   0.175E-02    0.623E-03
DAV:  15    -0.213588123107E+02    0.80832E-06   -0.27412E-07 64144   0.362E-03
   1 F= -.21358812E+02 E0= -.21358812E+02  d E =0.000000E+00  mag=     2.5203
